--- PyADF *** new job *** PyADF ---
SYSTEM
 ATOMS [Angstrom]
         O       -1.55101       -0.11452        0.00000    
         H       -1.93426        0.76250        0.00000    
         H       -0.59968        0.04071        0.00000    
         O        1.35062        0.11147        0.00000    
         H        1.68040       -0.37374       -0.75856    
         H        1.68040       -0.37374        0.75856    
 END
 CHARGE 0 

END

TASK SinglePoint 

Engine ADF
Title Input generated by PyADF

 SYMMETRY NOSYM
 SymmetryTolerance 1.89e-2

 BASIS
  Type DZP
  Core None 
 END

 Relativity
  formalism ZORA 
 level Scalar
End

 XC
   GGA PBE
 END

 INTEGRATION 
  accint  8.0  8.0  8.0  
 END 

 SCF
   iterations  200 
   converge 1.0e-06 1.0e-06 
 END

 Occupations  KEEPORBITALS 200  

STOFIT

 SAVE TAPE21  

 EPRINT 
   SFO NOEIG NOOVL NOORBPOP 
   SCF NOPOP 
 END

 NOPRINT BAS FUNCTIONS 

 NOSYMFIT

 NUCLEARMODEL gaussian

EndEngine


 *******************************************************************************
 *                                                                             *
 *  --------------------------------                                           *
 *   Amsterdam Modeling Suite (AMS)              2022.102                      *
 *  --------------------------------                                           *
 *                                               r103598 2022-04-22            *
 *                                                                             *
 *                                                                             *
 *                              =================                              *
 *                              |               |                              *
 *                              |     A M S     |                              *
 *                              |               |                              *
 *                              =================                              *
 *                                                                             *
 *                                                                             *
 *   Online information and documentation:  https://www.scm.com/support/       *
 *   E-mail:  support@scm.com   info@scm.com                                   *
 *                                                                             *
 *   Scientific publications using AMS results must be properly referenced     *
 *   See the User Manuals (or the web site) for recommended citations          *
 *   The terms and conditions of the End User License Agreement apply to       *
 *   the use of AMS, https://www.scm.com/license-terms/                        *
 *                                                                             *
 **********************  x86_64_linux_intel / intelmpi  ************************
 
 Licensed to: Dr. Mariusz Sterzel / Academic Computer Centre "Cyfronet" AGH / Krakow / POLAND 2023-03-28 11:01:36
 SCM User ID: u9855
  
 AMS 2022.102  RunTime: Jul18-2023 11:48:32  ShM Nodes: 1  Procs: 1

 AMS jobname: ams
 AMS jobid  : 1343711874

 Start   directory: /net/people/plgrid/plggosiao/jobs/pyadf/workshops/workshop_14july2023/simple/sample_scripts/pyadftempdir/jobtempdir/
 Results directory: /net/people/plgrid/plggosiao/jobs/pyadf/workshops/workshop_14july2023/simple/sample_scripts/pyadftempdir/jobtempdir/ams.results/
 Scratch directory: /net/ascratch/people/plggosiao/slurm_jobdir/4010548/amstmp_ams_kid0.1343711874/

 RNG seed: -1194804919 -486854470 859655783 1376143247 -1264704698 -469559354 214347314 1028029848



                      ************************************************************************
                      *  ADF 2022.102  RunTime: Jul18-2023 11:48:32  ShM Nodes: 1  Procs: 1  *
                      ************************************************************************
  
       ****************************
       * SINGLE POINT CALCULATION *
       ****************************
 
--------
Geometry
--------
Formula: H4O2
Atoms
  Index Symbol   x (angstrom)   y (angstrom)   z (angstrom)
      1      O    -1.55101000    -0.11452000     0.00000000
      2      H    -1.93426000     0.76250000     0.00000000
      3      H    -0.59968000     0.04071000     0.00000000
      4      O     1.35062000     0.11147000     0.00000000
      5      H     1.68040000    -0.37374000    -0.75856000
      6      H     1.68040000    -0.37374000     0.75856000
 
Total System Charge             0.00000
 
 
----------------
ADF Engine Input
----------------
 
 Title Input generated by PyADF
 SYMMETRY NOSYM
 SymmetryTolerance 1.89e-2
 BASIS
 Type DZP
 Core None
 END
 Relativity
 formalism ZORA
 level Scalar
 End
 XC
 GGA PBE
 END
 INTEGRATION
 accint  8.0  8.0  8.0
 END
 SCF
 iterations  200
 converge 1.0e-06 1.0e-06
 END
 Occupations  KEEPORBITALS 200
 STOFIT
 SAVE TAPE21
 EPRINT
 SFO NOEIG NOOVL NOORBPOP
 SCF NOPOP
 END
 NOPRINT BAS FUNCTIONS
 NOSYMFIT
 NUCLEARMODEL gaussian
 

 Title: Input generated by PyADF

 *** adf ***



 ===========================
 A T T A C H E D   F I L E S
 ===========================
  



 ===============================
 M O D E L   P A R A M E T E R S
 ===============================
  
 DENSITY FUNCTIONAL POTENTIAL (scf)
    LDA:                               PW92                                    == Not Default ==
    Gradient Corrections:              PBEc PBEx                               == Not Default ==

 SPIN  (restricted / unrestr.)
    Molecule:                          Restricted                               
    Fragments:                         Restricted                               

 OTHER ASPECTS
    Relativistic Corrections:          scalar (ZORA,MAPA)                       

    Nuclear Charge Density Model:      Gaussian Charge Distributions            *** SPECIAL ***
    Core Treatment:                    Frozen Orbital(s)                        

    Hyperfine or Zeeman Interaction:   ---                                      


 Fragment File(s)
 ----------------
 O:
         file : /net/people/plgrid/plggosiao/jobs/pyadf/workshops/workshop_14july2023/simple/sample_scripts/pyadftempdir/jobtempdir/ams.results/t21.EFC64C0.O
         jobid: 0
         title: Oxygen (DZP)
 H:
         file : /net/people/plgrid/plggosiao/jobs/pyadf/workshops/workshop_14july2023/simple/sample_scripts/pyadftempdir/jobtempdir/ams.results/t21.3E51AF33.H
         jobid: 0
         title: Hydrogen (DZP)



 ===============
 G E O M E T R Y  ***  3D  Molecule  ***
 ===============
  

 ATOMS
 =====                            X Y Z                    CHARGE
                                (Angstrom)             Nucl     +Core       At.Mass
                       --------------------------    ----------------       -------
    1  O              -1.5510   -0.1145    0.0000      8.00      8.00       15.9949
    2  H              -1.9343    0.7625    0.0000      1.00      1.00        1.0078
    3  H              -0.5997    0.0407    0.0000      1.00      1.00        1.0078
    4  O               1.3506    0.1115    0.0000      8.00      8.00       15.9949
    5  H               1.6804   -0.3737   -0.7586      1.00      1.00        1.0078
    6  H               1.6804   -0.3737    0.7586      1.00      1.00        1.0078


 FRAGMENTS
 =========                                     Atoms in this Fragment     Cart. coord.s (Angstrom)
                                               -------------------------------------------------------
    1  O                                                 1  O           -1.5510   -0.1145    0.0000
    2  O                                                 4  O            1.3506    0.1115    0.0000
    3  H                                                 2  H           -1.9343    0.7625    0.0000
    4  H                                                 3  H           -0.5997    0.0407    0.0000
    5  H                                                 5  H            1.6804   -0.3737   -0.7586
    6  H                                                 6  H            1.6804   -0.3737    0.7586


 Interatomic Distance Matrix (Angstrom)
 --------------------------------------

   1)     0.000
   2)     0.957   0.000
   3)     0.964   1.517   0.000
   4)     2.910   3.349   1.952   0.000
   5)     3.329   3.864   2.438   0.959   0.000
   6)     3.329   3.864   2.438   0.959   1.517   0.000

 Min. Distance =    0.9571
 Max. Distance =    3.8642



 =====================================
 S Y M M E T R Y ,   E L E C T R O N S
 =====================================
  
 Symmetry: NOSYM

 Irreducible Representations, including subspecies
 -------------------------------------------------
 A


 Configuration of Valence Electrons
 ==================================
 ( determined in the SCF procedure )

 Total:   20

 Net Charge: 0 (Nuclei minus Electrons)

 Aufbau principle for MO occupations will be applied through SCF cycle no.     200
 Thereafter, the program will assign electrons to MOs that are spatially
 similar to the occupied MOs in a "reference" cycle ("KeepOrbitals").
 The reference cycle is always the PREVIOUS cycle: it will evolve with
 the SCF procedure.



 =======
 S F O s  ***  (Symmetrized Fragment Orbitals)  ***
 =======
  
 SFOs are linear combinations of (valence) Fragment Orbitals (FOs), such that the SFOs transform as the
 irreducible representations of the (molecular) symmetry group. Each SFO is therefore characterized by
 an irrep of the molecule and by a few (or only one) generating FOs.
 The SFOs constitute a symmetry-adapted basis for the Fock matrix. The MO eigenvector coefficients in
 this basis provide a direct interpretation of the MOs in terms of Frontier Orbital Theory.

 The SFOs are combined with auxiliary Core Functions (CFs) to ensure orthogonalization on the (frozen)
 Core Orbitals (COs). The Core-orthogonalized SFOs (CSFOs) constitute the true Fock basis.

 The FOs, and hence also the (C)SFOs are combinations of the elementary basis functions (BAS). The basis
 functions that participate in the description of the SFOs depend on the irrep. The indices of the
 involved functions are printed below for each irrep.
 (The complete list of primitive basis functions is printed in another section)

 Total nr. of (C)SFOs (summation over all irreps) :    50

 NOTE: a (C)SFO that is defined as a combination of more than one FO is usually NOT normalized.



                                       === A ===
 Nr. of SFOs :   50
 Cartesian basis functions that participate in this irrep (total number =    52) :
      1     2     3     4     5     8     6     9     7    10
     11    12    13    14    15    16    17    18    19    20
     21    24    22    25    23    26    27    28    29    30
     31    32    33    34    35    36    37    38    39    40
     41    42    43    44    45    46    47    48    49    50
     51    52

    SFO  (index         Fragment          Generating    Expansion in Fragment Orbitals
  indx  incl.CFs)   Occup   Orb.Energy   FragmentType  Coeff.   Orbital     on Fragment
 --------------------------------------------------------------------------------------
     1       1      2.000     -18.940 au  O             1.00      1 S               1
                        (    -515.384 eV)
     2       2      2.000      -0.890 au  O             1.00      2 S               1
                        (     -24.222 eV)
     3       3       --         0.861 au  O             1.00      3 S               1
                        (      23.416 eV)
     4       4       --        37.084 au  O             1.00      4 S               1
                        (    1009.101 eV)
     5       5      1.333      -0.336 au  O             1.00      1 P:x             1
                        (      -9.137 eV)
     6       6       --         0.824 au  O             1.00      2 P:x             1
                        (      22.434 eV)
     7       7      1.333      -0.336 au  O             1.00      1 P:y             1
                        (      -9.137 eV)
     8       8       --         0.824 au  O             1.00      2 P:y             1
                        (      22.434 eV)
     9       9      1.333      -0.336 au  O             1.00      1 P:z             1
                        (      -9.137 eV)
    10      10       --         0.824 au  O             1.00      2 P:z             1
                        (      22.434 eV)
    11      11       --         1.062 au  O             1.00      1 D:z2            1
                        (      28.888 eV)
    12      12       --         1.062 au  O             1.00      1 D:x2-y2         1
                        (      28.888 eV)
    13      13       --         1.062 au  O             1.00      1 D:xy            1
                        (      28.888 eV)
    14      14       --         1.062 au  O             1.00      1 D:xz            1
                        (      28.888 eV)
    15      15       --         1.062 au  O             1.00      1 D:yz            1
                        (      28.888 eV)
    16      16      2.000     -18.940 au  O             1.00      1 S               2
                        (    -515.384 eV)
    17      17      2.000      -0.890 au  O             1.00      2 S               2
                        (     -24.222 eV)
    18      18       --         0.861 au  O             1.00      3 S               2
                        (      23.416 eV)
    19      19       --        37.084 au  O             1.00      4 S               2
                        (    1009.101 eV)
    20      20      1.333      -0.336 au  O             1.00      1 P:x             2
                        (      -9.137 eV)
    21      21       --         0.824 au  O             1.00      2 P:x             2
                        (      22.434 eV)
    22      22      1.333      -0.336 au  O             1.00      1 P:y             2
                        (      -9.137 eV)
    23      23       --         0.824 au  O             1.00      2 P:y             2
                        (      22.434 eV)
    24      24      1.333      -0.336 au  O             1.00      1 P:z             2
                        (      -9.137 eV)
    25      25       --         0.824 au  O             1.00      2 P:z             2
                        (      22.434 eV)
    26      26       --         1.062 au  O             1.00      1 D:z2            2
                        (      28.888 eV)
    27      27       --         1.062 au  O             1.00      1 D:x2-y2         2
                        (      28.888 eV)
    28      28       --         1.062 au  O             1.00      1 D:xy            2
                        (      28.888 eV)
    29      29       --         1.062 au  O             1.00      1 D:xz            2
                        (      28.888 eV)
    30      30       --         1.062 au  O             1.00      1 D:yz            2
                        (      28.888 eV)
    31      31      1.000      -0.240 au  H             1.00      1 S               3
                        (      -6.519 eV)
    32      32       --         0.390 au  H             1.00      2 S               3
                        (      10.613 eV)
    33      33       --         0.405 au  H             1.00      1 P:x             3
                        (      11.011 eV)
    34      34       --         0.405 au  H             1.00      1 P:y             3
                        (      11.011 eV)
    35      35       --         0.405 au  H             1.00      1 P:z             3
                        (      11.011 eV)
    36      36      1.000      -0.240 au  H             1.00      1 S               4
                        (      -6.519 eV)
    37      37       --         0.390 au  H             1.00      2 S               4
                        (      10.613 eV)
    38      38       --         0.405 au  H             1.00      1 P:x             4
                        (      11.011 eV)
    39      39       --         0.405 au  H             1.00      1 P:y             4
                        (      11.011 eV)
    40      40       --         0.405 au  H             1.00      1 P:z             4
                        (      11.011 eV)
    41      41      1.000      -0.240 au  H             1.00      1 S               5
                        (      -6.519 eV)
    42      42       --         0.390 au  H             1.00      2 S               5
                        (      10.613 eV)
    43      43       --         0.405 au  H             1.00      1 P:x             5
                        (      11.011 eV)
    44      44       --         0.405 au  H             1.00      1 P:y             5
                        (      11.011 eV)
    45      45       --         0.405 au  H             1.00      1 P:z             5
                        (      11.011 eV)
    46      46      1.000      -0.240 au  H             1.00      1 S               6
                        (      -6.519 eV)
    47      47       --         0.390 au  H             1.00      2 S               6
                        (      10.613 eV)
    48      48       --         0.405 au  H             1.00      1 P:x             6
                        (      11.011 eV)
    49      49       --         0.405 au  H             1.00      1 P:y             6
                        (      11.011 eV)
    50      50       --         0.405 au  H             1.00      1 P:z             6
                        (      11.011 eV)

 Total number of charge fitting functions (nprimf)       368
 Total number of Cartesian basis functions (naos)         52
 Total number of Cartesian core functions  (ncos)          0

1
 ***************************************************************************************************



                                              ***********************
                                              *  T E C H N I C A L  *
                                              ***********************
  



 =============================================================
 P A R A L L E L I Z A T I O N  and  V E C T O R I Z A T I O N
 =============================================================
  
 Nr of parallel processes:                                1
 Maximum vector length in NumInt loops:                 128



 =====================
 S C F   U P D A T E S
 =====================
  
 Max. nr. of cycles:                               200
 Convergence criterion:                              0.0000010000
   secondary criterion:                              0.0000010000

 Mix parameter (when DIIS does not apply):           0.2000000000
 Mixed ADIIS+SDIIS will be used                  
    Max number of expansion vectors:                10
    Pure ADIIS when Max([F,P]) is above              0.1000000000
    Pure SDIIS when Max([F,P]) is below              0.0010000000
 Automatic ElectronSmearing (in case of problematic SCF convergence) disabled



 =================
 P R E C I S I O N  ***  (General: NumInt, NeglectFunctionTails, ...)  ***
 =================
  

 NumInt:           Target precision:                 8.0000000000
 -------           Initial precision:                8.0000000000
                   Min. precision (optimization):    8.0000000000

 Neglect Functions:          Basis functions:        0.1000000000E-09
 ------------------          Fit functions:          0.1000000000E-09



 ===========================
 L I N E A R   S C A L I N G
 ===========================
  

 Cut-off radii density fit:                        0.1000000000E-11
 Overlap cut-off criterion AO matrix elements:     0.1000000000E-09
 Cut-offs for Coulomb potential and fitted density:0.1000000000E-11
 Cut-off criterion for Coulomb multipole terms:    0.1000000000E-11
 Progressive Convergence parameter:                 0.000000000    
1
 ***************************************************************************************************



                                            ***************************
                                            *  C O M P U T A T I O N  *
                                            ***************************
  

 Number of elements of the density matrix on this node (used, total):      1378      1378



 ====================================================
 Numerical Integration : Voronoi Polyhedra (Te Velde)
 ====================================================
  
 General Accuracy Parameter :                          8.00

 Symmetry used in the points section:  C(S)  


 Summary of the Symmetry Unique Points:
 --------------------------------------
    Nr. of used Symmetry Operators                     2

    Points in the Atomic Spheres                    4514
    Points in the Atomic Polyhedra                 40853
    Points in the Outer Region                     18098
    ----------------------------------------------------
    Total                                          63465

    Sum of Weights                                 86532.613732

 Total nr. of points:     126930
 Nr. of blocks:              992
 Block length:               128
 Nr. of dummy points:         46


 Test of Precision of the Numerical Integration Grid
 ===================================================

 Integral of the Total Core Density:                   0.00000000000000



 =====
 S C F  ***  ScaSCF  ***
 =====
  
 Initial density matrix is calculated as sum of fragments

 CYCLE    1
 SCF Error: norm([F,P])=      3.220525860825, max([F,P])=      1.372525232844
 orbitals (Q,E):
 ---------------
 A :1...20           ( 2.00   -19.0559)  ( 2.00   -19.0532)  ( 2.00    -1.1193)  ( 2.00    -1.1123)
                     ( 2.00    -0.6433)  ( 2.00    -0.6425)  ( 2.00    -0.5305)  ( 2.00    -0.5135)
                     ( 2.00    -0.4507)  ( 2.00    -0.4445)  ( 0.00    -0.0739)  ( 0.00    -0.0303)
                     ( 0.00     0.0199)  ( 0.00     0.0672)  ( 0.00     0.2730)  ( 0.00     0.2890)
                     ( 0.00     0.3016)  ( 0.00     0.3235)  ( 0.00     0.3333)  ( 0.00     0.3828)

 CYCLE    2
  SDIIS (wt  0.000):  0.1147  0.8853
 A-DIIS (wt  1.000):  0.7536  0.2464
  DIIS coefficients:  0.7536  0.2464
 SCF Error: norm([F,P])=      1.078666005204, max([F,P])=      0.373439378459
 orbitals (Q,E):
 ---------------
 A :1...11           ( 2.00   -18.8782)  ( 2.00   -18.8508)  ( 2.00    -1.0368)  ( 2.00    -1.0131)
                     ( 2.00    -0.5745)  ( 2.00    -0.5555)  ( 2.00    -0.4456)  ( 2.00    -0.4153)
                     ( 2.00    -0.3642)  ( 2.00    -0.3407)  ( 0.00    -0.0502)

 CYCLE    3
  SDIIS (wt  0.000):  0.0047 -0.4614  1.4567
 A-DIIS (wt  1.000):  0.4817  0.0000  0.5183
  DIIS coefficients:  0.4817  0.0000  0.5183
 SCF Error: norm([F,P])=      0.350766720901, max([F,P])=      0.122854804075
 orbitals (Q,E):
 ---------------
 A :1...11           ( 2.00   -18.8540)  ( 2.00   -18.8101)  ( 2.00    -1.0098)  ( 2.00    -0.9703)
                     ( 2.00    -0.5516)  ( 2.00    -0.5172)  ( 2.00    -0.4180)  ( 2.00    -0.3755)
                     ( 2.00    -0.3360)  ( 2.00    -0.2987)  ( 0.00    -0.0391)

 CYCLE    4
  SDIIS (wt  0.339):  0.0464 -1.5151  2.4687
 A-DIIS (wt  0.661):  0.0000  0.0000  1.0000
  DIIS coefficients:  0.0157 -0.5143  1.4985
 SCF Error: norm([F,P])=      0.195778549361, max([F,P])=      0.066396003890
 orbitals (Q,E):
 ---------------
 A :1...11           ( 2.00   -18.7610)  ( 2.00   -18.7011)  ( 2.00    -0.9474)  ( 2.00    -0.8853)
                     ( 2.00    -0.4995)  ( 2.00    -0.4433)  ( 2.00    -0.3558)  ( 2.00    -0.2953)
                     ( 2.00    -0.2697)  ( 2.00    -0.2150)  ( 0.00    -0.0178)

 CYCLE    5
  SDIIS (wt  0.000):  0.1226 -0.9291  1.4493  0.3573
 A-DIIS (wt  1.000):  0.0000  0.0000  0.5732  0.4268
  DIIS coefficients:  0.0000  0.0000  0.5732  0.4268
 SCF Error: norm([F,P])=      0.251024369137, max([F,P])=      0.080154789722
 orbitals (Q,E):
 ---------------
 A :1...11           ( 2.00   -18.8229)  ( 2.00   -18.7573)  ( 2.00    -0.9699)  ( 2.00    -0.9064)
                     ( 2.00    -0.5174)  ( 2.00    -0.4603)  ( 2.00    -0.3780)  ( 2.00    -0.3168)
                     ( 2.00    -0.2931)  ( 2.00    -0.2367)  ( 0.00    -0.0229)

 CYCLE    6
  SDIIS (wt  0.915):  0.0072  0.6553 -0.9358  0.1400  1.1332
 A-DIIS (wt  0.085):  0.0000  0.0000  0.0000  0.0000  1.0000
  DIIS coefficients:  0.0066  0.5995 -0.8561  0.1281  1.1219
 SCF Error: norm([F,P])=      0.020381952860, max([F,P])=      0.009429763474
 orbitals (Q,E):
 ---------------
 A :1...11           ( 2.00   -18.8220)  ( 2.00   -18.7666)  ( 2.00    -0.9705)  ( 2.00    -0.9116)
                     ( 2.00    -0.5178)  ( 2.00    -0.4645)  ( 2.00    -0.3787)  ( 2.00    -0.3209)
                     ( 2.00    -0.2944)  ( 2.00    -0.2417)  ( 0.00    -0.0234)

 CYCLE    7
  SDIIS (wt  0.976): -0.0073  0.1753 -0.2427 -0.0102  0.5666  0.5182
 A-DIIS (wt  0.024):  0.0000  0.0000  0.0000  0.0000  0.1536  0.8464
  DIIS coefficients: -0.0071  0.1711 -0.2369 -0.0099  0.5568  0.5261
 SCF Error: norm([F,P])=      0.008964035409, max([F,P])=      0.003371363170
 orbitals (Q,E):
 ---------------
 A :1...11           ( 2.00   -18.8235)  ( 2.00   -18.7639)  ( 2.00    -0.9710)  ( 2.00    -0.9106)
                     ( 2.00    -0.5183)  ( 2.00    -0.4638)  ( 2.00    -0.3792)  ( 2.00    -0.3201)
                     ( 2.00    -0.2947)  ( 2.00    -0.2406)  ( 0.00    -0.0235)

 CYCLE    8
  SDIIS (wt  1.000): -0.0005  0.0232 -0.0303 -0.0014  0.1311  0.1623  0.7155
  DIIS coefficients: -0.0005  0.0232 -0.0303 -0.0014  0.1311  0.1623  0.7155
 SCF Error: norm([F,P])=      0.000512899706, max([F,P])=      0.000213166718
 orbitals (Q,E):
 ---------------
 A :1...11           ( 2.00   -18.8235)  ( 2.00   -18.7639)  ( 2.00    -0.9710)  ( 2.00    -0.9106)
                     ( 2.00    -0.5183)  ( 2.00    -0.4637)  ( 2.00    -0.3792)  ( 2.00    -0.3201)
                     ( 2.00    -0.2947)  ( 2.00    -0.2406)  ( 0.00    -0.0235)

 CYCLE    9
  SDIIS (wt  1.000):  0.0001  0.0002 -0.0001 -0.0000  0.0056  0.0098  0.1029  0.8816
  DIIS coefficients:  0.0001  0.0002 -0.0001 -0.0000  0.0056  0.0098  0.1029  0.8816
 SCF Error: norm([F,P])=      0.000056848551, max([F,P])=      0.000015400609
 orbitals (Q,E):
 ---------------
 A :1...11           ( 2.00   -18.8235)  ( 2.00   -18.7639)  ( 2.00    -0.9710)  ( 2.00    -0.9106)
                     ( 2.00    -0.5183)  ( 2.00    -0.4637)  ( 2.00    -0.3792)  ( 2.00    -0.3201)
                     ( 2.00    -0.2947)  ( 2.00    -0.2406)  ( 0.00    -0.0235)

 CYCLE   10
  SDIIS (wt  1.000): -0.0000  0.0004 -0.0006 -0.0001 -0.0002  0.0001  0.0162  0.2301  0.7542
  DIIS coefficients: -0.0000  0.0004 -0.0006 -0.0001 -0.0002  0.0001  0.0162  0.2301  0.7542
 SCF Error: norm([F,P])=      0.000009230160, max([F,P])=      0.000003048267
 orbitals (Q,E):
 ---------------
 A :1...11           ( 2.00   -18.8235)  ( 2.00   -18.7639)  ( 2.00    -0.9710)  ( 2.00    -0.9106)
                     ( 2.00    -0.5183)  ( 2.00    -0.4637)  ( 2.00    -0.3792)  ( 2.00    -0.3201)
                     ( 2.00    -0.2947)  ( 2.00    -0.2406)  ( 0.00    -0.0235)

 CYCLE   11
  SDIIS (wt  1.000): -0.0000  0.0000 -0.0001 -0.0000 -0.0001 -0.0001  0.0018  0.0352  0.1688  0.7946
  DIIS coefficients: -0.0000  0.0000 -0.0001 -0.0000 -0.0001 -0.0001  0.0018  0.0352  0.1688  0.7946
 SCF Error: norm([F,P])=      0.000001007675, max([F,P])=      0.000000357564
 orbitals (Q,E):
 ---------------
 A :1...11           ( 2.00   -18.8235)  ( 2.00   -18.7639)  ( 2.00    -0.9710)  ( 2.00    -0.9106)
                     ( 2.00    -0.5183)  ( 2.00    -0.4637)  ( 2.00    -0.3792)  ( 2.00    -0.3201)
                     ( 2.00    -0.2947)  ( 2.00    -0.2406)  ( 0.00    -0.0235)

 SCF CONVERGED

 CYCLE   12
1
 ***************************************************************************************************



                                                *******************
                                                *  R E S U L T S  *
                                                *******************
  
 *** Using FIT density in Focky
  SDIIS (wt  1.000): -0.0000  0.0000 -0.0000 -0.0000 -0.0000 -0.0001  0.0012  0.0161  0.1806  0.8022
  DIIS coefficients: -0.0000  0.0000 -0.0000 -0.0000 -0.0000 -0.0001  0.0012  0.0161  0.1806  0.8022
 SCF Error: norm([F,P])=      0.000000182283, max([F,P])=      0.000000068075

 Scaled ZORA Orbital Energies, per Irrep and Spin:
 =================================================
                        Occup              E (au)              E (eV)       Diff (eV) with prev. cycle
                        -----      --------------------        ------       --------------------------
 A
               1        2.000     -0.18823471791926E+02      -512.213              -4.89E-07
               2        2.000     -0.18763910065310E+02      -510.592               2.12E-07
               3        2.000     -0.97101880814279E+00       -26.423              -5.64E-07
               4        2.000     -0.91061221013840E+00       -24.779               1.65E-07
               5        2.000     -0.51827558331954E+00       -14.103              -3.95E-07
               6        2.000     -0.46373318868343E+00       -12.619               1.91E-07
               7        2.000     -0.37918423865119E+00       -10.318               2.28E-07
               8        2.000     -0.32013762218579E+00        -8.711               6.06E-08
               9        2.000     -0.29472458846611E+00        -8.020              -1.03E-07
              10        2.000     -0.24064217620797E+00        -6.548               8.26E-08
              11        0.000     -0.23490457673545E-01        -0.639
              12        0.000      0.43153718525118E-01         1.174
              13        0.000      0.74974778750602E-01         2.040
              14        0.000      0.17976711856045E+00         4.892
              15        0.000      0.33380659041614E+00         9.083
              16        0.000      0.35490668735192E+00         9.658
              17        0.000      0.38243269489364E+00        10.407
              18        0.000      0.39467410027782E+00        10.740
              19        0.000      0.43067296676969E+00        11.719
              20        0.000      0.44984987468266E+00        12.241
  
 HOMO :       10 A                -0.24064217620797E+00
 LUMO :       11 A                -0.23490457673545E-01
  


 All Electron Calculation, thus no Orbital Energies of the Core Orbitals are calculated


 Fit test: (difference of exact and fit density, squared integrated, result summed over spins)
         Sum-of-Fragments:                             0.00000359466465
         Orthogonalized Fragments:                     0.00003011766442
         SCF:                                          0.00001782707774



 ==========================
 Electron Density at Nuclei
 ==========================
  
 The electron density is calculated at points on a small sphere around the center of a nucleus.
 The printed electron density is the average electron density on these points.
 The radius of the sphere is the printed approximate finite nuclear radius.
 Note: ZORA-4 density is used, which includes small component density

         Atom        Nuclear Radius (Angstrom)             Electron Density (a.u.)
         ----        -------------------------             -----------------------
     1)   O                 0.0000345546                              312.00909
     2)   H                 0.0000181514                                0.47715
     3)   H                 0.0000181514                                0.46997
     4)   O                 0.0000345546                              312.01161
     5)   H                 0.0000181514                                0.47034
     6)   H                 0.0000181514                                0.47034

 Gross Charges per Atom (Z minus electrons)
 ==========================================
            -0.3902    0.1230    0.2495   -0.3879    0.2028    0.2028
 Net Total: -0.00000000



 =================================================================
 M U L T I P O L E   D E R I V E D   C H A R G E   A N A L Y S I S
 =================================================================

 This charge analysis uses the atomic multipoles (obtained from the fitted density) up to some level X,
 and reconstructs these multipoles exactly (up to level X) by distributing charges over all atoms.
 This is achieved by using Lagrange multipliers and a weight function to keep the multipoles local.

 Dummy atoms can be included (by setting INCDUM in MDC-block to 1) to obtain a fractional charge.
 This is generally useful and necessary only for small symmetrical molecules, when there are not
 enough degrees of freedom to reconstruct the multipoles.

 Since the atomic multipoles are reconstructed up to level X,
 the molecular multipoles are represented also up to level X.
 The recommended level is to reconstruct up to quadrupole : -> MDC-q charges.

 See: M. Swart, P.Th. van Duijnen, J.G. Snijders, J.Comput.Chem., (2001), p. 79-88.

 ------------------------------------------------------------- 
 Atomic electronic multipole moments from SCF equations (a.u.)
 ------------------------------------------------------------- 

   atom        charge        dip-x     dip-y     dip-z      quad-xx   quad-xy   quad-xz   quad-yy   quad-yz   quad-zz
 --------------------------------------------------------------------------------------------------------------------
    1 O      0.313491     0.075011  0.177285  0.000000     0.216565 -0.276062 -0.000000  0.141751  0.000000 -0.358315
    2 H     -0.215608    -0.376030  0.730432 -0.000000     0.172669  0.728128 -0.000000 -0.436523  0.000000  0.263854
    3 H     -0.120630     0.747846  0.112327 -0.000000    -0.647808 -0.316341  0.000000  0.353418 -0.000000  0.294390
    4 O      0.367339     0.139366 -0.161175 -0.000000    -0.261534 -0.382227  0.000000 -0.073669  0.000000  0.335203
    5 H     -0.172296     0.268684 -0.384372 -0.657754     0.179926  0.250171  0.524325  0.083185 -0.755224 -0.263111
    6 H     -0.172296     0.268684 -0.384372  0.657754     0.179926  0.250171 -0.524325  0.083185  0.755224 -0.263111

 --------------------------------------- 
 Multipole derived atomic charges (a.u.)
 --------------------------------------- 

 The MDC-m charges are just the Monopole terms in the multipole expansion, while for the MDC-d charges
 also the Dipoles are reconstructed. The usually preferred charges are the MDC-q charges.
 These reconstruct the Monopoles, Dipoles and Quadrupoles (both atomic AND molecular).

        Atom    Level:     MDC-m        MDC-d        MDC-q
 ---------------------------------------------------------
     1     O            0.313491    -0.625513    -0.402320
     2     H           -0.215608     0.332203     0.209040
     3     H           -0.120630     0.222044     0.130210
     4     O            0.367339    -0.608250    -0.292853
     5     H           -0.172296     0.339758     0.177962
     6     H           -0.172296     0.339758     0.177962

 ------------------------------------------------ 
 Average absolute deviations in atomic multipoles
 ------------------------------------------------ 

 Stated here are the average differences between the atomic multipoles
 and the reconstructed atomic multipoles (from the distributed charges).
 If these values are not zero, this means there are not enough degrees of freedom,
 to be able to reconstruct the atomic multipoles. (This usually happens only
 for small and/or highly symmetric molecules). If this is the case, one could add
 dummy atoms as extra point charges (and setting INCDUM in MDC-block to 1).

 Level:                                 MDC-d        MDC-q
 ---------------------------------------------------------
 Charge   (a.u.)                       0.0000       0.0000
 Dipole   (Debye)                      0.0000       0.2443
 Quad.    (a.u.)                       0.1760       0.0222

 --------------------------------------- 
 Represented molecular multipole moments
 --------------------------------------- 

 Given here are the Molecular multipole moments from the atomic charges, and from the Fit Density.
 Note that the atomic charges represent the latter, NOT the ones from the Exact density.

            Q (a.u.)             Dipole moment (Debye)                                          Quadrupole moment (a.u.)
                                 x         y         z              xx        xy        xz        yy        yz        zz
------------------------------------------------------------------------------------------------------------------------
MDC-m         0.0000       -0.3831   -0.1704   -0.0000         -0.7757    3.4729   -0.0000    0.4769    0.0000    0.2987
MDC-d         0.0000        2.4727    0.0587    0.0000          1.0548   -6.0252    0.0000   -0.8443   -0.0000   -0.2105
MDC-q        -0.0000        1.6530    0.2166   -0.0000          0.5293   -3.4848   -0.0000   -0.3778    0.0000   -0.1515
 
Fit.Dens.     0.0000        2.4727    0.0587    0.0000          0.3851   -6.8033    0.0000   -0.5632    0.0000    0.1781



 =============
 Dipole Moment  ***  (Debye)  ***
 =============
  
 Vector   :         2.46248369      0.04804607      0.00000000
 Magnitude:         2.46295237

 This molecular dipole moment is calculated with analytic integration



 =========================================
 Quadrupole Moment (Buckingham convention)  ***  (a.u.)  ***
 =========================================
  
      quad-xx        quad-xy        quad-xz        quad-yy        quad-yz        quad-zz
      0.31483287    -6.69406394    -0.00000000    -0.53913226     0.00000000     0.22429939

 This molecular quadrupole moment is calculated with analytic integration
1



 ===========================
 B O N D I N G   E N E R G Y  ***  (decomposition)  ***
 ===========================
  
*** IMPORTANT NOTE ***

The bond energy is computed as an energy difference between molecule and
fragments. In particular when the fragments are single atoms, they are usually
computed as SPHERICALLY SYMMETRIC and SPIN-RESTRICTED. Obviously, this usually
does NOT represent the true atomic groundstate.

To obtain the 'real' bond energy, (atomic) correction terms must be applied
for the true (multiplet) fragment ground state. See ref: E.J.Baerends,
V.Branchadell, M.Sodupe, Chem.Phys.Lett.265 (1997) 481

General theoretical background on the bond energy decomposition scheme used
here (Morokuma-Ziegler) can be found in the review paper:
F.M. Bickelhaupt and E.J. Baerends,
"Kohn-Sham Density Functional Theory: Predicting and Understanding Chemistry"
In: Rev. Comput. Chem.; Lipkowitz, K. B. and Boyd, D. B., Eds.;
Wiley-VCH: New York, 2000, Vol. 15, 1-86.

Symbols used in the Bickelhaupt-Baerends (BB) paper are given below to make
the direct connection to that paper, where detailed explanations can be found
on the meaning of the various terms.


                                                   hartree              eV         kcal/mol           kJ/mol
                                      --------------------     -----------       ----------      -----------

Pauli Repulsion
  Kinetic (Delta T^0):                   8.243880063535055        224.3274          5173.11         21644.30
  Delta V^Pauli Coulomb:                -4.451733248421456       -121.1378         -2793.51        -11688.02
  Delta V^Pauli LDA-XC:                 -1.036994802117442        -28.2181          -650.72         -2722.63
  Delta V^Pauli GGA-Exchange:            0.044938755856290          1.2228            28.20           117.99
  Delta V^Pauli GGA-Correlation:        -0.010399792642175         -0.2830            -6.53           -27.30
                                      --------------------     -----------       ----------      -----------
  Total Pauli Repulsion:                 2.789690976210272         75.9114          1750.56          7324.33
 (Total Pauli Repulsion =
  Delta E^Pauli in BB paper)

Steric Interaction
  Pauli Repulsion (Delta E^Pauli):       2.789690976210272         75.9114          1750.56          7324.33
  Electrostatic Interaction:            -0.500483055757306        -13.6188          -314.06         -1314.02
 (Electrostatic Interaction =
  Delta V_elstat in the BB paper)
                                      --------------------     -----------       ----------      -----------
  Total Steric Interaction:              2.289207920452966         62.2925          1436.50          6010.31
 (Total Steric Interaction =
  Delta E^0 in the BB paper)

Orbital Interactions
  A:                                    -3.325116111648264        -90.4810         -2086.54         -8730.09
                                      --------------------     -----------       ----------      -----------
  Total Orbital Interactions:           -3.325116111648264        -90.4810         -2086.54         -8730.09

Alternative Decomposition Orb.Int.
  Kinetic:                              -7.160831611974388       -194.8561         -4493.49        -18800.76
  Coulomb:                               3.787743801247212        103.0698          2376.85          9944.72
  XC:                                    0.047971699078917          1.3054            30.10           125.95
                                      --------------------     -----------       ----------      -----------
  Total Orbital Interactions:           -3.325116111648259        -90.4810         -2086.54         -8730.09

  Residu (E=Steric+OrbInt+Res):         -0.000000057819923         -0.0000            -0.00            -0.00

Total Bonding Energy:                   -1.035908249015221        -28.1885          -650.04         -2719.78


Summary of Bonding Energy (energy terms are taken from the energy decomposition above)
======================================================================================

  Electrostatic Energy:                 -0.500483055757306        -13.6188          -314.06         -1314.02
  Kinetic Energy:                        1.083048451560668         29.4712           679.62          2843.54
  Coulomb (Steric+OrbInt) Energy:       -0.663989504994167        -18.0681          -416.66         -1743.30
  XC Energy:                            -0.954484139824409        -25.9728          -598.95         -2506.00
                                      --------------------     -----------       ----------      -----------
  Total Bonding Energy:                 -1.035908249015215        -28.1885          -650.04         -2719.78


Correction terms (incorporated in energies above; only for test purposes):

1. Indication of fit-quality: 1st-order fit-correction used in the energy (hartree):   0.0003577089
2. Electrostatic (Fit correction):   0.0000000000

Scaled ZORA energy correction, not included in bonding energy (hartree):           -0.0000133210
 NOTE: This scaled ZORA energy correction should only be used to compare two calculations
 in which the only difference in the calculation is the electron configuration.
 Then the difference in energy of this term should be added to the difference in energy of
 the two electron configurations.
 This term should not be used otherwise.
 In practice it is useful only for core excitation energy calculations.



 =========================================
 F R A G M E N T   E N E R G Y   T E R M S  ***  (summed over all fragments)  ***
 =========================================
  

The energy terms below are (parts of) the Total Energy of the fragments from which the molecule
 is built.

Exchange and Correlation
  Exchange LDA:                        -15.259592456419822       -415.2346         -9575.54        -40064.05
  Exchange GGA:                         -1.718732871403675        -46.7691         -1078.52         -4512.53
  Correlation LDA:                      -1.250009828788872        -34.0145          -784.39         -3281.90
  Correlation GGA:                       0.707091916781185         19.2410           443.71          1856.47
                                      --------------------     -----------       ----------      -----------
  Total XC:                            -17.521243239831186       -476.7773        -10994.75        -46002.02



 List of all MOs, ordered by energy, with the most significant SFO gross populations
 ===================================================================================

 Each percentage contribution in the table below corres ponds to the indicated SFO.
 In general, a SFO may be a linear combination of several Fragment Orbitals on the same,
 or on symmetry-related Fragments. Only the first 'member' of such a combination is
 specified here. A full definition of all SFOs is given in an earlier part of the output.
 The numbering of the SFOs in this table does NOT include the Core Orbitals, and starts
 from one for each symmetry representation, as in the SFO definition list earlier.

       E(eV)  Occ       MO           %     SFO (first member)   E(eV)  Occ   Fragment
 -------------------------------------------------------------------------------------

     -24.779  2.00     4 A         69.76%     2 S             -24.222  2.00     1 O
                                   13.03%     1 S              -6.519  1.00     3 H
                                    7.67%     1 S              -6.519  1.00     4 H
                                    2.85%     1 P:x            11.011  0.00     4 H
                                    2.48%     1 P:y            -9.137  1.33     1 O
                                    2.48%     1 P:y            11.011  0.00     3 H
     -14.103  2.00     5 A         64.13%     1 P:z            -9.137  1.33     2 O
                                   14.07%     1 S              -6.519  1.00     6 H
                                   14.07%     1 S              -6.519  1.00     5 H
                                    3.85%     2 S              10.613  0.00     5 H
                                    3.85%     2 S              10.613  0.00     6 H
     -12.619  2.00     6 A         47.17%     1 P:x            -9.137  1.33     1 O
                                   13.89%     1 P:y            -9.137  1.33     1 O
                                   13.48%     1 S              -6.519  1.00     4 H
                                   12.90%     1 S              -6.519  1.00     3 H
                                    3.91%     2 S              10.613  0.00     4 H
                                    3.89%     2 S              10.613  0.00     3 H
                                    3.58%     1 P:x            -9.137  1.33     2 O
     -10.318  2.00     7 A         44.86%     1 P:y            -9.137  1.33     2 O
                                   25.25%     1 P:x            -9.137  1.33     2 O
                                   11.87%     2 S             -24.222  2.00     2 O
                                    3.89%     1 P:y            -9.137  1.33     1 O
                                    3.55%     1 S              -6.519  1.00     6 H
                                    3.55%     1 S              -6.519  1.00     5 H
                                    1.34%     1 S              -6.519  1.00     3 H
                                    1.32%     2 S              10.613  0.00     5 H
                                    1.32%     2 S              10.613  0.00     6 H
      -8.711  2.00     8 A         47.47%     1 P:y            -9.137  1.33     1 O
                                   13.24%     1 P:x            -9.137  1.33     1 O
                                   11.76%     1 P:y            -9.137  1.33     2 O
                                   10.84%     2 S             -24.222  2.00     1 O
                                    4.66%     1 P:x            -9.137  1.33     2 O
                                    3.82%     1 S              -6.519  1.00     3 H
                                    2.50%     1 S              -6.519  1.00     4 H
                                    1.40%     2 S              10.613  0.00     4 H
                                    1.12%     2 S              10.613  0.00     3 H
      -8.020  2.00     9 A         53.68%     1 P:x            -9.137  1.33     2 O
                                   24.22%     1 P:y            -9.137  1.33     2 O
                                    7.26%     1 P:x            -9.137  1.33     1 O
                                    6.70%     1 P:y            -9.137  1.33     1 O
                                    1.52%     1 P:x            11.011  0.00     6 H
                                    1.52%     1 P:x            11.011  0.00     5 H
                                    1.21%     2 S             -24.222  2.00     1 O
      -6.548  2.00    10 A         93.55%     1 P:z            -9.137  1.33     1 O
                                    3.15%     1 P:z            11.011  0.00     3 H
                                    2.96%     1 P:z            11.011  0.00     4 H
      -0.639  0.00    11 A         34.68%     1 S              -6.519  1.00     6 H
                                   34.68%     1 S              -6.519  1.00     5 H
                                   10.90%     2 S              10.613  0.00     6 H
                                   10.90%     2 S              10.613  0.00     5 H
                                  -10.56%     3 S              23.416  0.00     2 O
                                    4.94%     1 S              -6.519  1.00     3 H
                                    4.83%     1 S              -6.519  1.00     4 H
                                    3.23%     1 P:y            -9.137  1.33     2 O
                                    2.43%     2 S             -24.222  2.00     2 O
                                    1.97%     2 S              10.613  0.00     3 H
                                    1.96%     2 S              10.613  0.00     4 H
                                   -1.67%     3 S              23.416  0.00     1 O
                                   -1.06%     2 P:y            22.434  0.00     2 O
       1.174  0.00    12 A         68.52%     1 S              -6.519  1.00     3 H
                                   20.35%     2 S              10.613  0.00     3 H
                                  -10.40%     3 S              23.416  0.00     1 O
                                    6.10%     1 P:y            -9.137  1.33     1 O
                                    5.71%     1 S              -6.519  1.00     4 H
                                    4.10%     1 S              -6.519  1.00     6 H
                                    4.10%     1 S              -6.519  1.00     5 H
                                   -3.37%     2 P:y            22.434  0.00     1 O
                                    2.08%     2 S             -24.222  2.00     1 O
                                    1.38%     2 S              10.613  0.00     4 H
                                    1.13%     1 P:x            -9.137  1.33     2 O
       2.040  0.00    13 A         49.52%     1 S              -6.519  1.00     5 H
                                   49.52%     1 S              -6.519  1.00     6 H
                                   16.00%     1 P:z            -9.137  1.33     2 O
                                  -15.58%     2 P:z            22.434  0.00     2 O
                                    3.50%     2 S              10.613  0.00     5 H
                                    3.50%     2 S              10.613  0.00     6 H
                                   -2.26%     1 P:z            11.011  0.00     6 H
                                   -2.26%     1 P:z            11.011  0.00     5 H
                                   -1.16%     1 D:yz           28.888  0.00     2 O



 ===============================================================================
 Electrostatic potential at the Nuclei due to valence electrons and other nuclei
 ===============================================================================
  
         Atom                  Potential
         ----                  ---------
     1)   O                  22.37829342
     2)   H                   1.01374059
     3)   H                   1.02282585
     4)   O                  22.31925584
     5)   H                   0.95728101
     6)   H                   0.95728101
 Mulliken charges used for AMS results%charges...


    =====================
     CALCULATION RESULTS
    =====================

Energy (hartree)            -1.03590825


--------------
Atomic charges
--------------
  Index   Atom    Charge
      1      O   -0.3902
      2      H    0.1230
      3      H    0.2495
      4      O   -0.3879
      5      H    0.2028
      6      H    0.2028


Dipole moment vector    (Debye):     2.46248369    0.04804607    0.00000000
              magnitude (Debye):     2.46295237


AMS application finished. Exiting.
NORMAL TERMINATION
     Total cpu time:      16.11
  Total system time:       0.40
 Total elapsed time:      17.44
<Jul18-2023> <11:48:32>  AMS 2022.102  RunTime: Jul18-2023 11:48:32  ShM Nodes: 1  Procs: 1
<Jul18-2023> <11:48:32>  ADF 2022.102  RunTime: Jul18-2023 11:48:32  ShM Nodes: 1  Procs: 1
<Jul18-2023> <11:48:32>  Input generated by PyADF
<Jul18-2023> <11:48:32>  DIRAC 2022.102  RunTime: Jul18-2023 11:48:32  ShM Nodes: 1  Procs: 1
<Jul18-2023> <11:48:32>  Oxygen (DZP)
<Jul18-2023> <11:48:32>  Net Charge: 0 (Nuclei minus Electrons)
<Jul18-2023> <11:48:32>  Symmetry  : ATOM
<Jul18-2023> <11:48:32>  Coordinates
<Jul18-2023> <11:48:32>     Atom         X           Y           Z   (Angstrom)
<Jul18-2023> <11:48:32>     1.O         0.000000    0.000000    0.000000
<Jul18-2023> <11:48:32>  >>>> CORORT
<Jul18-2023> <11:48:32>  >>>> FITINT
<Jul18-2023> <11:48:32>  >>>> CLSMAT
<Jul18-2023> <11:48:32>  >>>> ORTHON
<Jul18-2023> <11:48:32>  >>>> GENPT
<Jul18-2023> <11:48:32>  Block Length=  68
<Jul18-2023> <11:48:32>  >>>> PTBAS
<Jul18-2023> <11:48:32>  >>>> CYCLE
<Jul18-2023> <11:48:32>              |Error|         MaxErr       Wt(A-DIIS)
<Jul18-2023> <11:48:32>      1      0.00000000      0.00000000
<Jul18-2023> <11:48:32>      2      5.97281528      4.42008286
<Jul18-2023> <11:48:32>      3      2.82303675      2.02086255    100.0
<Jul18-2023> <11:48:32>      4      0.82138071      0.46117498    100.0
<Jul18-2023> <11:48:32>      5      0.90101661      0.54478946    100.0
<Jul18-2023> <11:48:32>      6      0.01925445      0.01188881     11.0
<Jul18-2023> <11:48:32>      7      0.00061436      0.00037887      0.0
<Jul18-2023> <11:48:32>      8      0.00004763      0.00002989      0.0
<Jul18-2023> <11:48:32>      9      0.00000145      0.00000082      0.0
<Jul18-2023> <11:48:32>     10      0.00000003      0.00000002      0.0
<Jul18-2023> <11:48:32>     11      0.00000000      0.00000000      0.0
<Jul18-2023> <11:48:32>  SCF converged
<Jul18-2023> <11:48:32>     12      0.00000000      0.00000000      0.0
<Jul18-2023> <11:48:32>  >>>> POPAN
<Jul18-2023> <11:48:32>  >>>> DEBYE
<Jul18-2023> <11:48:33>  DIRAC 2022.102  RunTime: Jul18-2023 11:48:33  ShM Nodes: 1  Procs: 1
<Jul18-2023> <11:48:33>  Hydrogen (DZP)
<Jul18-2023> <11:48:33>  Net Charge: 0 (Nuclei minus Electrons)
<Jul18-2023> <11:48:33>  Symmetry  : ATOM
<Jul18-2023> <11:48:33>  Coordinates
<Jul18-2023> <11:48:33>     Atom         X           Y           Z   (Angstrom)
<Jul18-2023> <11:48:33>     1.H         0.000000    0.000000    0.000000
<Jul18-2023> <11:48:33>  >>>> CORORT
<Jul18-2023> <11:48:33>  >>>> FITINT
<Jul18-2023> <11:48:33>  >>>> CLSMAT
<Jul18-2023> <11:48:33>  >>>> ORTHON
<Jul18-2023> <11:48:33>  >>>> GENPT
<Jul18-2023> <11:48:33>  Block Length=  64
<Jul18-2023> <11:48:33>  >>>> PTBAS
<Jul18-2023> <11:48:33>  >>>> CYCLE
<Jul18-2023> <11:48:33>              |Error|         MaxErr       Wt(A-DIIS)
<Jul18-2023> <11:48:33>      1      0.00000000      0.00000000
<Jul18-2023> <11:48:33>      2      0.03294776      0.03294776
<Jul18-2023> <11:48:33>      3      0.00594600      0.00594600    100.0
<Jul18-2023> <11:48:33>      4      0.00101901      0.00101901      0.0
<Jul18-2023> <11:48:33>      5      0.00000143      0.00000143      0.0
<Jul18-2023> <11:48:33>      6      0.00000000      0.00000000      0.0
<Jul18-2023> <11:48:33>  SCF converged
<Jul18-2023> <11:48:33>      7      0.00000000      0.00000000      0.0
<Jul18-2023> <11:48:33>  >>>> POPAN
<Jul18-2023> <11:48:33>  >>>> DEBYE
<Jul18-2023> <11:48:33>  *** adf ***
<Jul18-2023> <11:48:33>  Net Charge: 0 (Nuclei minus Electrons)
<Jul18-2023> <11:48:33>  Symmetry  : NOSYM
<Jul18-2023> <11:48:33>  >>>> FRAGM
<Jul18-2023> <11:48:33>  Coordinates
<Jul18-2023> <11:48:33>     Atom         X           Y           Z   (Angstrom)
<Jul18-2023> <11:48:33>     1.O        -1.551010   -0.114520    0.000000
<Jul18-2023> <11:48:33>     2.H        -1.934260    0.762500    0.000000
<Jul18-2023> <11:48:33>     3.H        -0.599680    0.040710    0.000000
<Jul18-2023> <11:48:33>     4.O         1.350620    0.111470    0.000000
<Jul18-2023> <11:48:33>     5.H         1.680400   -0.373740   -0.758560
<Jul18-2023> <11:48:33>     6.H         1.680400   -0.373740    0.758560
<Jul18-2023> <11:48:33>  >>>> CORORT
<Jul18-2023> <11:48:33>  >>>> FITINT
<Jul18-2023> <11:48:33>  >>>> CLSMAT
<Jul18-2023> <11:48:33>  >>>> ORTHON
<Jul18-2023> <11:48:33>  >>>> GENPT
<Jul18-2023> <11:48:33>  Acc.Num.Int.=   8.000
<Jul18-2023> <11:48:34>  Block Length= 128
<Jul18-2023> <11:48:34>  >>>> PTBAS
<Jul18-2023> <11:48:34>  >>>> CYCLE
<Jul18-2023> <11:48:35>              |Error|         MaxErr       Wt(A-DIIS)
<Jul18-2023> <11:48:35>      1      3.22052586      1.37252523
<Jul18-2023> <11:48:35>      2      1.07866601      0.37343938    100.0
<Jul18-2023> <11:48:36>      3      0.35076672      0.12285480    100.0
<Jul18-2023> <11:48:37>      4      0.19577855      0.06639600     66.1
<Jul18-2023> <11:48:38>      5      0.25102437      0.08015479    100.0
<Jul18-2023> <11:48:39>      6      0.02038195      0.00942976      8.5
<Jul18-2023> <11:48:40>      7      0.00896404      0.00337136      2.4
<Jul18-2023> <11:48:41>      8      0.00051290      0.00021317      0.0
<Jul18-2023> <11:48:41>      9      0.00005685      0.00001540      0.0
<Jul18-2023> <11:48:42>     10      0.00000923      0.00000305      0.0
<Jul18-2023> <11:48:43>     11      0.00000101      0.00000036      0.0
<Jul18-2023> <11:48:43>  SCF converged
<Jul18-2023> <11:48:44>     12      0.00000018      0.00000007      0.0
<Jul18-2023> <11:48:45>  >>>> TOTEN
<Jul18-2023> <11:48:49>  >>>> POPAN
<Jul18-2023> <11:48:49>  >>>> DEBYE
<Jul18-2023> <11:48:49>  >>>> AMETS
<Jul18-2023> <11:48:49>   Bond Energy          -1.03590825 a.u.
<Jul18-2023> <11:48:49>   Bond Energy         -28.18849770 eV
<Jul18-2023> <11:48:49>   Bond Energy        -650.04       kcal/mol
<Jul18-2023> <11:48:49>  >>>> POPUL
<Jul18-2023> <11:48:49>  NORMAL TERMINATION
--- PyADF *** new job *** PyADF ---
SYSTEM
 ATOMS [Angstrom]
         O        1.35062        0.11147        0.00000    
         H        1.68040       -0.37374       -0.75856    
         H        1.68040       -0.37374        0.75856    
 END
 CHARGE 0 

END

TASK SinglePoint 

Engine ADF
Title Input generated by PyADF

 SYMMETRY NOSYM
 SymmetryTolerance 1.89e-2

 BASIS
  Type DZP
  Core None 
 END

 Relativity
  formalism ZORA 
 level Scalar
End

 XC
   GGA PBE
 END

 INTEGRATION 
  accint  8.0  8.0  8.0  
 END 

 SCF
   iterations  200 
   converge 1.0e-06 1.0e-06 
 END

 Occupations  KEEPORBITALS 200  

STOFIT

 SAVE TAPE21  

 EPRINT 
   SFO NOEIG NOOVL NOORBPOP 
   SCF NOPOP 
 END

 NOPRINT BAS FUNCTIONS 

 NOSYMFIT

 NUCLEARMODEL gaussian

EndEngine


 *******************************************************************************
 *                                                                             *
 *  --------------------------------                                           *
 *   Amsterdam Modeling Suite (AMS)              2022.102                      *
 *  --------------------------------                                           *
 *                                               r103598 2022-04-22            *
 *                                                                             *
 *                                                                             *
 *                              =================                              *
 *                              |               |                              *
 *                              |     A M S     |                              *
 *                              |               |                              *
 *                              =================                              *
 *                                                                             *
 *                                                                             *
 *   Online information and documentation:  https://www.scm.com/support/       *
 *   E-mail:  support@scm.com   info@scm.com                                   *
 *                                                                             *
 *   Scientific publications using AMS results must be properly referenced     *
 *   See the User Manuals (or the web site) for recommended citations          *
 *   The terms and conditions of the End User License Agreement apply to       *
 *   the use of AMS, https://www.scm.com/license-terms/                        *
 *                                                                             *
 **********************  x86_64_linux_intel / intelmpi  ************************
 
 Licensed to: Dr. Mariusz Sterzel / Academic Computer Centre "Cyfronet" AGH / Krakow / POLAND 2023-03-28 11:01:36
 SCM User ID: u9855
  
 AMS 2022.102  RunTime: Jul18-2023 11:48:50  ShM Nodes: 1  Procs: 1

 AMS jobname: ams
 AMS jobid  : 76730754

 Start   directory: /net/people/plgrid/plggosiao/jobs/pyadf/workshops/workshop_14july2023/simple/sample_scripts/pyadftempdir/jobtempdir/
 Results directory: /net/people/plgrid/plggosiao/jobs/pyadf/workshops/workshop_14july2023/simple/sample_scripts/pyadftempdir/jobtempdir/ams.results/
 Scratch directory: /net/ascratch/people/plggosiao/slurm_jobdir/4010548/amstmp_ams_kid0.76730754/

 RNG seed: 1669836513 -280064943 537113713 -2012287054 -1206671978 480581714 564354419 488784482



                      ************************************************************************
                      *  ADF 2022.102  RunTime: Jul18-2023 11:48:50  ShM Nodes: 1  Procs: 1  *
                      ************************************************************************
  
       ****************************
       * SINGLE POINT CALCULATION *
       ****************************
 
--------
Geometry
--------
Formula: H2O
Atoms
  Index Symbol   x (angstrom)   y (angstrom)   z (angstrom)
      1      O     1.35062000     0.11147000     0.00000000
      2      H     1.68040000    -0.37374000    -0.75856000
      3      H     1.68040000    -0.37374000     0.75856000
 
Total System Charge             0.00000
 
 
----------------
ADF Engine Input
----------------
 
 Title Input generated by PyADF
 SYMMETRY NOSYM
 SymmetryTolerance 1.89e-2
 BASIS
 Type DZP
 Core None
 END
 Relativity
 formalism ZORA
 level Scalar
 End
 XC
 GGA PBE
 END
 INTEGRATION
 accint  8.0  8.0  8.0
 END
 SCF
 iterations  200
 converge 1.0e-06 1.0e-06
 END
 Occupations  KEEPORBITALS 200
 STOFIT
 SAVE TAPE21
 EPRINT
 SFO NOEIG NOOVL NOORBPOP
 SCF NOPOP
 END
 NOPRINT BAS FUNCTIONS
 NOSYMFIT
 NUCLEARMODEL gaussian
 

 Title: Input generated by PyADF

 *** adf ***



 ===========================
 A T T A C H E D   F I L E S
 ===========================
  



 ===============================
 M O D E L   P A R A M E T E R S
 ===============================
  
 DENSITY FUNCTIONAL POTENTIAL (scf)
    LDA:                               PW92                                    == Not Default ==
    Gradient Corrections:              PBEc PBEx                               == Not Default ==

 SPIN  (restricted / unrestr.)
    Molecule:                          Restricted                               
    Fragments:                         Restricted                               

 OTHER ASPECTS
    Relativistic Corrections:          scalar (ZORA,MAPA)                       

    Nuclear Charge Density Model:      Gaussian Charge Distributions            *** SPECIAL ***
    Core Treatment:                    Frozen Orbital(s)                        

    Hyperfine or Zeeman Interaction:   ---                                      


 Fragment File(s)
 ----------------
 O:
         file : /net/people/plgrid/plggosiao/jobs/pyadf/workshops/workshop_14july2023/simple/sample_scripts/pyadftempdir/jobtempdir/ams.results/t21.EFC64C0.O
         jobid: 0
         title: Oxygen (DZP)
 H:
         file : /net/people/plgrid/plggosiao/jobs/pyadf/workshops/workshop_14july2023/simple/sample_scripts/pyadftempdir/jobtempdir/ams.results/t21.3E51AF33.H
         jobid: 0
         title: Hydrogen (DZP)



 ===============
 G E O M E T R Y  ***  Planar Molecule  ***
 ===============
  

 ATOMS
 =====                            X Y Z                    CHARGE
                                (Angstrom)             Nucl     +Core       At.Mass
                       --------------------------    ----------------       -------
    1  O               1.3506    0.1115    0.0000      8.00      8.00       15.9949
    2  H               1.6804   -0.3737   -0.7586      1.00      1.00        1.0078
    3  H               1.6804   -0.3737    0.7586      1.00      1.00        1.0078


 FRAGMENTS
 =========                                     Atoms in this Fragment     Cart. coord.s (Angstrom)
                                               -------------------------------------------------------
    1  O                                                 1  O            1.3506    0.1115    0.0000
    2  H                                                 2  H            1.6804   -0.3737   -0.7586
    3  H                                                 3  H            1.6804   -0.3737    0.7586


 Interatomic Distance Matrix (Angstrom)
 --------------------------------------

   1)     0.000
   2)     0.959   0.000
   3)     0.959   1.517   0.000

 Min. Distance =    0.9590
 Max. Distance =    1.5171



 =====================================
 S Y M M E T R Y ,   E L E C T R O N S
 =====================================
  
 Symmetry: NOSYM

 Irreducible Representations, including subspecies
 -------------------------------------------------
 A


 Configuration of Valence Electrons
 ==================================
 ( determined in the SCF procedure )

 Total:   10

 Net Charge: 0 (Nuclei minus Electrons)

 Aufbau principle for MO occupations will be applied through SCF cycle no.     200
 Thereafter, the program will assign electrons to MOs that are spatially
 similar to the occupied MOs in a "reference" cycle ("KeepOrbitals").
 The reference cycle is always the PREVIOUS cycle: it will evolve with
 the SCF procedure.



 =======
 S F O s  ***  (Symmetrized Fragment Orbitals)  ***
 =======
  
 SFOs are linear combinations of (valence) Fragment Orbitals (FOs), such that the SFOs transform as the
 irreducible representations of the (molecular) symmetry group. Each SFO is therefore characterized by
 an irrep of the molecule and by a few (or only one) generating FOs.
 The SFOs constitute a symmetry-adapted basis for the Fock matrix. The MO eigenvector coefficients in
 this basis provide a direct interpretation of the MOs in terms of Frontier Orbital Theory.

 The SFOs are combined with auxiliary Core Functions (CFs) to ensure orthogonalization on the (frozen)
 Core Orbitals (COs). The Core-orthogonalized SFOs (CSFOs) constitute the true Fock basis.

 The FOs, and hence also the (C)SFOs are combinations of the elementary basis functions (BAS). The basis
 functions that participate in the description of the SFOs depend on the irrep. The indices of the
 involved functions are printed below for each irrep.
 (The complete list of primitive basis functions is printed in another section)

 Total nr. of (C)SFOs (summation over all irreps) :    25

 NOTE: a (C)SFO that is defined as a combination of more than one FO is usually NOT normalized.



                                       === A ===
 Nr. of SFOs :   25
 Cartesian basis functions that participate in this irrep (total number =    26) :
      1     2     3     4     5     8     6     9     7    10
     11    12    13    14    15    16    17    18    19    20
     21    22    23    24    25    26

    SFO  (index         Fragment          Generating    Expansion in Fragment Orbitals
  indx  incl.CFs)   Occup   Orb.Energy   FragmentType  Coeff.   Orbital     on Fragment
 --------------------------------------------------------------------------------------
     1       1      2.000     -18.940 au  O             1.00      1 S               1
                        (    -515.384 eV)
     2       2      2.000      -0.890 au  O             1.00      2 S               1
                        (     -24.222 eV)
     3       3       --         0.861 au  O             1.00      3 S               1
                        (      23.416 eV)
     4       4       --        37.084 au  O             1.00      4 S               1
                        (    1009.101 eV)
     5       5      1.333      -0.336 au  O             1.00      1 P:x             1
                        (      -9.137 eV)
     6       6       --         0.824 au  O             1.00      2 P:x             1
                        (      22.434 eV)
     7       7      1.333      -0.336 au  O             1.00      1 P:y             1
                        (      -9.137 eV)
     8       8       --         0.824 au  O             1.00      2 P:y             1
                        (      22.434 eV)
     9       9      1.333      -0.336 au  O             1.00      1 P:z             1
                        (      -9.137 eV)
    10      10       --         0.824 au  O             1.00      2 P:z             1
                        (      22.434 eV)
    11      11       --         1.062 au  O             1.00      1 D:z2            1
                        (      28.888 eV)
    12      12       --         1.062 au  O             1.00      1 D:x2-y2         1
                        (      28.888 eV)
    13      13       --         1.062 au  O             1.00      1 D:xy            1
                        (      28.888 eV)
    14      14       --         1.062 au  O             1.00      1 D:xz            1
                        (      28.888 eV)
    15      15       --         1.062 au  O             1.00      1 D:yz            1
                        (      28.888 eV)
    16      16      1.000      -0.240 au  H             1.00      1 S               2
                        (      -6.519 eV)
    17      17       --         0.390 au  H             1.00      2 S               2
                        (      10.613 eV)
    18      18       --         0.405 au  H             1.00      1 P:x             2
                        (      11.011 eV)
    19      19       --         0.405 au  H             1.00      1 P:y             2
                        (      11.011 eV)
    20      20       --         0.405 au  H             1.00      1 P:z             2
                        (      11.011 eV)
    21      21      1.000      -0.240 au  H             1.00      1 S               3
                        (      -6.519 eV)
    22      22       --         0.390 au  H             1.00      2 S               3
                        (      10.613 eV)
    23      23       --         0.405 au  H             1.00      1 P:x             3
                        (      11.011 eV)
    24      24       --         0.405 au  H             1.00      1 P:y             3
                        (      11.011 eV)
    25      25       --         0.405 au  H             1.00      1 P:z             3
                        (      11.011 eV)

 Total number of charge fitting functions (nprimf)       184
 Total number of Cartesian basis functions (naos)         26
 Total number of Cartesian core functions  (ncos)          0

1
 ***************************************************************************************************



                                              ***********************
                                              *  T E C H N I C A L  *
                                              ***********************
  



 =============================================================
 P A R A L L E L I Z A T I O N  and  V E C T O R I Z A T I O N
 =============================================================
  
 Nr of parallel processes:                                1
 Maximum vector length in NumInt loops:                 128



 =====================
 S C F   U P D A T E S
 =====================
  
 Max. nr. of cycles:                               200
 Convergence criterion:                              0.0000010000
   secondary criterion:                              0.0000010000

 Mix parameter (when DIIS does not apply):           0.2000000000
 Mixed ADIIS+SDIIS will be used                  
    Max number of expansion vectors:                10
    Pure ADIIS when Max([F,P]) is above              0.1000000000
    Pure SDIIS when Max([F,P]) is below              0.0010000000
 Automatic ElectronSmearing (in case of problematic SCF convergence) disabled



 =================
 P R E C I S I O N  ***  (General: NumInt, NeglectFunctionTails, ...)  ***
 =================
  

 NumInt:           Target precision:                 8.0000000000
 -------           Initial precision:                8.0000000000
                   Min. precision (optimization):    8.0000000000

 Neglect Functions:          Basis functions:        0.1000000000E-09
 ------------------          Fit functions:          0.1000000000E-09



 ===========================
 L I N E A R   S C A L I N G
 ===========================
  

 Cut-off radii density fit:                        0.1000000000E-11
 Overlap cut-off criterion AO matrix elements:     0.1000000000E-09
 Cut-offs for Coulomb potential and fitted density:0.1000000000E-11
 Cut-off criterion for Coulomb multipole terms:    0.1000000000E-11
 Progressive Convergence parameter:                 0.000000000    
1
 ***************************************************************************************************



                                            ***************************
                                            *  C O M P U T A T I O N  *
                                            ***************************
  

 Number of elements of the density matrix on this node (used, total):       351       351



 ====================================================
 Numerical Integration : Voronoi Polyhedra (Te Velde)
 ====================================================
  
 General Accuracy Parameter :                          8.00

 Symmetry used in the points section:  C(2V) 


 Summary of the Symmetry Unique Points:
 --------------------------------------
    Nr. of used Symmetry Operators                     4

    Points in the Atomic Spheres                    1206
    Points in the Atomic Polyhedra                  9539
    Points in the Outer Region                      6504
    ----------------------------------------------------
    Total                                          17249

    Sum of Weights                                 89590.008445

 Total nr. of points:      68996
 Nr. of blocks:              540
 Block length:               128
 Nr. of dummy points:        124


 Test of Precision of the Numerical Integration Grid
 ===================================================

 Integral of the Total Core Density:                   0.00000000000000



 =====
 S C F  ***  ScaSCF  ***
 =====
  
 Initial density matrix is calculated as sum of fragments

 CYCLE    1
 SCF Error: norm([F,P])=      2.234316788591, max([F,P])=      1.359680321222
 orbitals (Q,E):
 ---------------
 A :1...15           ( 2.00   -19.0537)  ( 2.00    -1.1142)  ( 2.00    -0.6409)  ( 2.00    -0.5188)
                     ( 2.00    -0.4446)  ( 0.00    -0.0586)  ( 0.00     0.0215)  ( 0.00     0.2999)
                     ( 0.00     0.3123)  ( 0.00     0.3460)  ( 0.00     0.4192)  ( 0.00     0.4814)
                     ( 0.00     0.7488)  ( 0.00     0.7716)  ( 0.00     0.8777)

 CYCLE    2
  SDIIS (wt  0.000):  0.1230  0.8770
 A-DIIS (wt  1.000):  0.7197  0.2803
  DIIS coefficients:  0.7197  0.2803
 SCF Error: norm([F,P])=      0.781714889268, max([F,P])=      0.341157928035
 orbitals (Q,E):
 ---------------
 A :1...6            ( 2.00   -18.8344)  ( 2.00    -1.0107)  ( 2.00    -0.5526)  ( 2.00    -0.4135)
                     ( 2.00    -0.3363)  ( 0.00    -0.0313)

 CYCLE    3
  SDIIS (wt  0.000):  0.0045 -0.2702  1.2657
 A-DIIS (wt  1.000):  0.3079  0.0000  0.6921
  DIIS coefficients:  0.3079  0.0000  0.6921
 SCF Error: norm([F,P])=      0.175468194886, max([F,P])=      0.073120815506
 orbitals (Q,E):
 ---------------
 A :1...6            ( 2.00   -18.7920)  ( 2.00    -0.9613)  ( 2.00    -0.5094)  ( 2.00    -0.3653)
                     ( 2.00    -0.2870)  ( 0.00    -0.0127)

 CYCLE    4
  SDIIS (wt  0.926):  0.1168 -0.6522  1.5354
 A-DIIS (wt  0.074):  0.0000  0.0000  1.0000
  DIIS coefficients:  0.1082 -0.6041  1.4959
 SCF Error: norm([F,P])=      0.022576097661, max([F,P])=      0.008306136091
 orbitals (Q,E):
 ---------------
 A :1...6            ( 2.00   -18.7929)  ( 2.00    -0.9405)  ( 2.00    -0.4903)  ( 2.00    -0.3454)
                     ( 2.00    -0.2669)  ( 0.00    -0.0030)

 CYCLE    5
  SDIIS (wt  0.994):  0.0128 -0.0488  0.1081  0.9280
 A-DIIS (wt  0.006):  0.0000  0.0000  0.0000  1.0000
  DIIS coefficients:  0.0127 -0.0485  0.1074  0.9284
 SCF Error: norm([F,P])=      0.003387985293, max([F,P])=      0.001602997958
 orbitals (Q,E):
 ---------------
 A :1...6            ( 2.00   -18.7943)  ( 2.00    -0.9412)  ( 2.00    -0.4910)  ( 2.00    -0.3460)
                     ( 2.00    -0.2675)  ( 0.00    -0.0033)

 CYCLE    6
  SDIIS (wt  1.000):  0.0018 -0.0028  0.0053  0.2283  0.7674
  DIIS coefficients:  0.0018 -0.0028  0.0053  0.2283  0.7674
 SCF Error: norm([F,P])=      0.000376238700, max([F,P])=      0.000128753322
 orbitals (Q,E):
 ---------------
 A :1...6            ( 2.00   -18.7943)  ( 2.00    -0.9412)  ( 2.00    -0.4910)  ( 2.00    -0.3460)
                     ( 2.00    -0.2675)  ( 0.00    -0.0033)

 CYCLE    7
  SDIIS (wt  1.000):  0.0000  0.0012 -0.0028  0.0285  0.1743  0.7988
  DIIS coefficients:  0.0000  0.0012 -0.0028  0.0285  0.1743  0.7988
 SCF Error: norm([F,P])=      0.000064559753, max([F,P])=      0.000021398363
 orbitals (Q,E):
 ---------------
 A :1...6            ( 2.00   -18.7943)  ( 2.00    -0.9412)  ( 2.00    -0.4910)  ( 2.00    -0.3460)
                     ( 2.00    -0.2675)  ( 0.00    -0.0033)

 CYCLE    8
  SDIIS (wt  1.000): -0.0000  0.0000 -0.0001 -0.0001 -0.0022  0.0160  0.9864
  DIIS coefficients: -0.0000  0.0000 -0.0001 -0.0001 -0.0022  0.0160  0.9864
 SCF Error: norm([F,P])=      0.000005450459, max([F,P])=      0.000002200517
 orbitals (Q,E):
 ---------------
 A :1...6            ( 2.00   -18.7943)  ( 2.00    -0.9412)  ( 2.00    -0.4910)  ( 2.00    -0.3460)
                     ( 2.00    -0.2675)  ( 0.00    -0.0033)

 CYCLE    9
  SDIIS (wt  1.000):  0.0000 -0.0000  0.0000 -0.0000 -0.0002 -0.0009  0.0035  0.9977
  DIIS coefficients:  0.0000 -0.0000  0.0000 -0.0000 -0.0002 -0.0009  0.0035  0.9977
[...]
 -------------------------------------------------------------------------------------

     -24.876  2.00     2 A        100.00%     2 A             -24.876  2.00     1 main fragm
     -12.575  2.00     3 A        100.00%     3 A             -12.575  2.00     1 main fragm
      -8.744  2.00     4 A        100.00%     4 A              -8.744  2.00     1 main fragm
      -6.635  2.00     5 A        100.00%     5 A              -6.635  2.00     1 main fragm
       0.707  0.00     6 A        100.00%     6 A               0.707  0.00     1 main fragm
       3.759  0.00     7 A        100.00%     7 A               3.759  0.00     1 main fragm



 ===============================================================================
 Electrostatic potential at the Nuclei due to valence electrons and other nuclei
 ===============================================================================
  
         Atom                  Potential
         ----                  ---------
     1)   O                  22.35307558
     2)   H                   0.99303484
     3)   H                   0.96555109
     4)   O                  -0.03422689
     5)   H                  -0.01938917
     6)   H                  -0.01938917
 Mulliken charges used for AMS results%charges...


    =====================
     CALCULATION RESULTS
    =====================

Energy (hartree)            -0.00000055


--------------
Atomic charges
--------------
  Index   Atom    Charge
      1      O   -0.3784
      2      H    0.1713
      3      H    0.2071
      4      O    0.0000
      5      H    0.0000
      6      H    0.0000


Dipole moment vector    (Debye):     1.10418819    1.58695860   -0.00000000
              magnitude (Debye):     1.93330524


AMS application finished. Exiting.
NORMAL TERMINATION
     Total cpu time:     113.61
  Total system time:       2.44
 Total elapsed time:     121.95
<Jul18-2023> <11:49:25>  AMS 2022.102  RunTime: Jul18-2023 11:49:25  ShM Nodes: 1  Procs: 1
<Jul18-2023> <11:49:26>  ADF 2022.102  RunTime: Jul18-2023 11:49:26  ShM Nodes: 1  Procs: 1
<Jul18-2023> <11:49:26>  Input generated by PyADF
<Jul18-2023> <11:49:26>  DIRAC 2022.102  RunTime: Jul18-2023 11:49:26  ShM Nodes: 1  Procs: 1
<Jul18-2023> <11:49:26>  Oxygen (DZP)
<Jul18-2023> <11:49:26>  Net Charge: 0 (Nuclei minus Electrons)
<Jul18-2023> <11:49:26>  Symmetry  : ATOM
<Jul18-2023> <11:49:26>  Coordinates
<Jul18-2023> <11:49:26>     Atom         X           Y           Z   (Angstrom)
<Jul18-2023> <11:49:26>     1.O         0.000000    0.000000    0.000000
<Jul18-2023> <11:49:26>  >>>> CORORT
<Jul18-2023> <11:49:26>  >>>> FITINT
<Jul18-2023> <11:49:26>  >>>> CLSMAT
<Jul18-2023> <11:49:26>  >>>> ORTHON
<Jul18-2023> <11:49:26>  >>>> GENPT
<Jul18-2023> <11:49:26>  Block Length=  68
<Jul18-2023> <11:49:26>  >>>> PTBAS
<Jul18-2023> <11:49:26>  >>>> CYCLE
<Jul18-2023> <11:49:26>              |Error|         MaxErr       Wt(A-DIIS)
<Jul18-2023> <11:49:26>      1      0.00000000      0.00000000
<Jul18-2023> <11:49:26>      2      5.97281528      4.42008286
<Jul18-2023> <11:49:26>      3      2.82303675      2.02086255    100.0
<Jul18-2023> <11:49:26>      4      0.82138071      0.46117498    100.0
<Jul18-2023> <11:49:26>      5      0.90101661      0.54478946    100.0
<Jul18-2023> <11:49:26>      6      0.01925445      0.01188881     11.0
<Jul18-2023> <11:49:26>      7      0.00061436      0.00037887      0.0
<Jul18-2023> <11:49:26>      8      0.00004763      0.00002989      0.0
<Jul18-2023> <11:49:26>      9      0.00000145      0.00000082      0.0
<Jul18-2023> <11:49:26>     10      0.00000003      0.00000002      0.0
<Jul18-2023> <11:49:26>     11      0.00000000      0.00000000      0.0
<Jul18-2023> <11:49:26>  SCF converged
<Jul18-2023> <11:49:26>     12      0.00000000      0.00000000      0.0
<Jul18-2023> <11:49:26>  >>>> POPAN
<Jul18-2023> <11:49:26>  >>>> DEBYE
<Jul18-2023> <11:49:26>  DIRAC 2022.102  RunTime: Jul18-2023 11:49:26  ShM Nodes: 1  Procs: 1
<Jul18-2023> <11:49:26>  Hydrogen (DZP)
<Jul18-2023> <11:49:26>  Net Charge: 0 (Nuclei minus Electrons)
<Jul18-2023> <11:49:26>  Symmetry  : ATOM
<Jul18-2023> <11:49:26>  Coordinates
<Jul18-2023> <11:49:26>     Atom         X           Y           Z   (Angstrom)
<Jul18-2023> <11:49:26>     1.H         0.000000    0.000000    0.000000
<Jul18-2023> <11:49:26>  >>>> CORORT
<Jul18-2023> <11:49:26>  >>>> FITINT
<Jul18-2023> <11:49:26>  >>>> CLSMAT
<Jul18-2023> <11:49:26>  >>>> ORTHON
<Jul18-2023> <11:49:26>  >>>> GENPT
<Jul18-2023> <11:49:26>  Block Length=  64
<Jul18-2023> <11:49:26>  >>>> PTBAS
<Jul18-2023> <11:49:26>  >>>> CYCLE
<Jul18-2023> <11:49:26>              |Error|         MaxErr       Wt(A-DIIS)
<Jul18-2023> <11:49:26>      1      0.00000000      0.00000000
<Jul18-2023> <11:49:26>      2      0.03294776      0.03294776
<Jul18-2023> <11:49:26>      3      0.00594600      0.00594600    100.0
<Jul18-2023> <11:49:26>      4      0.00101901      0.00101901      0.0
<Jul18-2023> <11:49:26>      5      0.00000143      0.00000143      0.0
<Jul18-2023> <11:49:26>      6      0.00000000      0.00000000      0.0
<Jul18-2023> <11:49:26>  SCF converged
<Jul18-2023> <11:49:26>      7      0.00000000      0.00000000      0.0
<Jul18-2023> <11:49:26>  >>>> POPAN
<Jul18-2023> <11:49:26>  >>>> DEBYE
<Jul18-2023> <11:49:26>  *** adf ***
<Jul18-2023> <11:49:27>  Net Charge: 0 (Nuclei minus Electrons)
<Jul18-2023> <11:49:27>  Symmetry  : NOSYM
<Jul18-2023> <11:49:27>  >>>> FRAGM
<Jul18-2023> <11:49:27>  Coordinates
<Jul18-2023> <11:49:27>     Atom         X           Y           Z   (Angstrom)
<Jul18-2023> <11:49:27>     1.O        -1.551010   -0.114520    0.000000
<Jul18-2023> <11:49:27>     2.H        -1.934260    0.762500    0.000000
<Jul18-2023> <11:49:27>     3.H        -0.599680    0.040710    0.000000
<Jul18-2023> <11:49:27>     4.O         1.350620    0.111470    0.000000
<Jul18-2023> <11:49:27>     5.H         1.680400   -0.373740   -0.758560
<Jul18-2023> <11:49:27>     6.H         1.680400   -0.373740    0.758560
<Jul18-2023> <11:49:27>  FDE calculation
<Jul18-2023> <11:49:27>  >>>> CORORT
<Jul18-2023> <11:49:27>  >>>> FITINT
<Jul18-2023> <11:49:27>  >>>> CLSMAT
<Jul18-2023> <11:49:27>  >>>> ORTHON
<Jul18-2023> <11:49:27>  >>>> GENPT
<Jul18-2023> <11:49:27>  Acc.Num.Int.=   8.000
<Jul18-2023> <11:49:27>  Block Length= 128
<Jul18-2023> <11:49:27>  >>>> PTBAS
<Jul18-2023> <11:49:27>  >>>> CYCLE
<Jul18-2023> <11:49:29>              |Error|         MaxErr       Wt(A-DIIS)
<Jul18-2023> <11:49:29>      1      2.23289130      1.36086475
<Jul18-2023> <11:49:30>      2      0.79640917      0.37036028    100.0
<Jul18-2023> <11:49:32>      3      0.10998093      0.04528531    100.0
<Jul18-2023> <11:49:33>      4      0.10085999      0.04582644     45.3
<Jul18-2023> <11:49:34>      5      0.01010370      0.00434280      3.4
<Jul18-2023> <11:49:36>      6      0.00098968      0.00042181      0.0
<Jul18-2023> <11:49:37>      7      0.00008030      0.00002852      0.0
<Jul18-2023> <11:49:38>      8      0.00001028      0.00000392      0.0
<Jul18-2023> <11:49:39>      9      0.00000083      0.00000033      0.0
<Jul18-2023> <11:49:39>  SCF converged
<Jul18-2023> <11:49:42>     10      0.00000014      0.00000007      0.0
<Jul18-2023> <11:49:42>  >>>> TOTEN
<Jul18-2023> <11:49:45>  >>>> POPAN
<Jul18-2023> <11:49:45>  >>>> DEBYE
<Jul18-2023> <11:49:45>   Subsystem A total energy            0.00000000 a.u.
<Jul18-2023> <11:49:45>   Subsystem B total energy            0.00000000 a.u.
<Jul18-2023> <11:49:45>   FDE interaction energy             -0.00818791 a.u.
<Jul18-2023> <11:49:45>   Total subsystem DFT energy         -0.00818791 a.u.
<Jul18-2023> <11:49:45>  >>>> AMETS
<Jul18-2023> <11:49:45>  >>>> POPUL
<Jul18-2023> <11:49:45>  FDE calculation: Relaxing FDE fragment frag2 in iteration No.  1
<Jul18-2023> <11:49:45>  >>>> FRAGM
<Jul18-2023> <11:49:45>  >>>> CORORT
<Jul18-2023> <11:49:45>  >>>> FITINT
<Jul18-2023> <11:49:45>  >>>> CLSMAT
<Jul18-2023> <11:49:45>  >>>> ORTHON
<Jul18-2023> <11:49:46>  >>>> GENPT
<Jul18-2023> <11:49:46>  Acc.Num.Int.=   8.000
<Jul18-2023> <11:49:46>  Block Length= 128
<Jul18-2023> <11:49:46>  >>>> PTBAS
<Jul18-2023> <11:49:46>  >>>> CYCLE
<Jul18-2023> <11:49:46>  Orbital Data from active fragment used
<Jul18-2023> <11:49:48>              |Error|         MaxErr       Wt(A-DIIS)
<Jul18-2023> <11:49:48>      1      0.04541025      0.01787331
<Jul18-2023> <11:49:49>      2      0.04049083      0.01522584    100.0
<Jul18-2023> <11:49:51>      3      0.04970767      0.01843049    100.0
<Jul18-2023> <11:49:52>      4      0.00507663      0.00200337      1.0
<Jul18-2023> <11:49:54>      5      0.00035226      0.00011848      0.0
<Jul18-2023> <11:49:55>      6      0.00000505      0.00000185      0.0
<Jul18-2023> <11:49:56>      7      0.00000141      0.00000049      0.0
<Jul18-2023> <11:49:56>  SCF converged
<Jul18-2023> <11:49:59>      8      0.00000016      0.00000005      0.0
<Jul18-2023> <11:50:00>  >>>> TOTEN
<Jul18-2023> <11:50:02>  >>>> POPAN
<Jul18-2023> <11:50:02>  >>>> DEBYE
<Jul18-2023> <11:50:02>   Subsystem A total energy            0.00000000 a.u.
<Jul18-2023> <11:50:02>   Subsystem B total energy            0.00000000 a.u.
<Jul18-2023> <11:50:02>   FDE interaction energy             -0.00957089 a.u.
<Jul18-2023> <11:50:02>   Total subsystem DFT energy         -0.00957089 a.u.
<Jul18-2023> <11:50:02>  >>>> AMETS
<Jul18-2023> <11:50:02>  >>>> POPUL
<Jul18-2023> <11:50:02>  FDE calculation: FDE iteration No.  2 on main fragment
<Jul18-2023> <11:50:02>  >>>> FRAGM
<Jul18-2023> <11:50:02>  >>>> CORORT
<Jul18-2023> <11:50:02>  >>>> FITINT
<Jul18-2023> <11:50:02>  >>>> CLSMAT
<Jul18-2023> <11:50:02>  >>>> ORTHON
<Jul18-2023> <11:50:02>  >>>> GENPT
<Jul18-2023> <11:50:02>  Acc.Num.Int.=   8.000
<Jul18-2023> <11:50:03>  Block Length= 128
<Jul18-2023> <11:50:03>  >>>> PTBAS
<Jul18-2023> <11:50:03>  >>>> CYCLE
<Jul18-2023> <11:50:03>  Orbital Data from active fragment used
<Jul18-2023> <11:50:05>              |Error|         MaxErr       Wt(A-DIIS)
<Jul18-2023> <11:50:05>      1      0.00493016      0.00200516
<Jul18-2023> <11:50:06>      2      0.00390474      0.00131454    100.0
<Jul18-2023> <11:50:07>      3      0.00589622      0.00207747    100.0
<Jul18-2023> <11:50:09>      4      0.00079470      0.00025952      0.0
<Jul18-2023> <11:50:10>      5      0.00007574      0.00002379      0.0
<Jul18-2023> <11:50:11>      6      0.00000560      0.00000239      0.0
<Jul18-2023> <11:50:13>      7      0.00000064      0.00000021      0.0
<Jul18-2023> <11:50:13>  SCF converged
<Jul18-2023> <11:50:15>      8      0.00000009      0.00000003      0.0
<Jul18-2023> <11:50:16>  >>>> TOTEN
<Jul18-2023> <11:50:18>  >>>> POPAN
<Jul18-2023> <11:50:18>  >>>> DEBYE
<Jul18-2023> <11:50:18>   Subsystem A total energy            0.00000000 a.u.
<Jul18-2023> <11:50:18>   Subsystem B total energy            0.00000000 a.u.
<Jul18-2023> <11:50:18>   FDE interaction energy             -0.00976364 a.u.
<Jul18-2023> <11:50:18>   Total subsystem DFT energy         -0.00976364 a.u.
<Jul18-2023> <11:50:18>  >>>> AMETS
<Jul18-2023> <11:50:18>  >>>> POPUL
<Jul18-2023> <11:50:18>  FDE calculation: Relaxing FDE fragment frag2 in iteration No.  2
<Jul18-2023> <11:50:18>  >>>> FRAGM
<Jul18-2023> <11:50:18>  >>>> CORORT
<Jul18-2023> <11:50:18>  >>>> FITINT
<Jul18-2023> <11:50:18>  >>>> CLSMAT
<Jul18-2023> <11:50:18>  >>>> ORTHON
<Jul18-2023> <11:50:18>  >>>> GENPT
<Jul18-2023> <11:50:18>  Acc.Num.Int.=   8.000
<Jul18-2023> <11:50:18>  Block Length= 128
<Jul18-2023> <11:50:19>  >>>> PTBAS
<Jul18-2023> <11:50:19>  >>>> CYCLE
<Jul18-2023> <11:50:19>  Orbital Data from active fragment used
<Jul18-2023> <11:50:21>              |Error|         MaxErr       Wt(A-DIIS)
<Jul18-2023> <11:50:21>      1      0.00076038      0.00034003
<Jul18-2023> <11:50:22>      2      0.00048815      0.00017768    100.0
<Jul18-2023> <11:50:23>      3      0.00079031      0.00029363    100.0
<Jul18-2023> <11:50:25>      4      0.00007631      0.00002130      0.0
<Jul18-2023> <11:50:26>      5      0.00000550      0.00000180      0.0
<Jul18-2023> <11:50:28>      6      0.00000008      0.00000003      0.0
<Jul18-2023> <11:50:28>  SCF converged
<Jul18-2023> <11:50:30>      7      0.00000002      0.00000001      0.0
<Jul18-2023> <11:50:31>  >>>> TOTEN
<Jul18-2023> <11:50:33>  >>>> POPAN
<Jul18-2023> <11:50:33>  >>>> DEBYE
<Jul18-2023> <11:50:33>   Subsystem A total energy            0.00000000 a.u.
<Jul18-2023> <11:50:33>   Subsystem B total energy            0.00000000 a.u.
<Jul18-2023> <11:50:33>   FDE interaction energy             -0.00978781 a.u.
<Jul18-2023> <11:50:33>   Total subsystem DFT energy         -0.00978781 a.u.
<Jul18-2023> <11:50:33>  >>>> AMETS
<Jul18-2023> <11:50:33>  >>>> POPUL
<Jul18-2023> <11:50:33>  FDE calculation: FDE iteration No.  3 on main fragment
<Jul18-2023> <11:50:33>  >>>> FRAGM
<Jul18-2023> <11:50:33>  >>>> CORORT
<Jul18-2023> <11:50:33>  >>>> FITINT
<Jul18-2023> <11:50:33>  >>>> CLSMAT
<Jul18-2023> <11:50:33>  >>>> ORTHON
<Jul18-2023> <11:50:33>  >>>> GENPT
<Jul18-2023> <11:50:33>  Acc.Num.Int.=   8.000
<Jul18-2023> <11:50:34>  Block Length= 128
<Jul18-2023> <11:50:34>  >>>> PTBAS
<Jul18-2023> <11:50:34>  >>>> CYCLE
<Jul18-2023> <11:50:34>  Orbital Data from active fragment used
<Jul18-2023> <11:50:36>              |Error|         MaxErr       Wt(A-DIIS)
<Jul18-2023> <11:50:36>      1      0.00008774      0.00003845
<Jul18-2023> <11:50:37>      2      0.00006799      0.00002246    100.0
<Jul18-2023> <11:50:39>      3      0.00009985      0.00003519    100.0
<Jul18-2023> <11:50:40>      4      0.00001604      0.00000457      0.0
<Jul18-2023> <11:50:41>      5      0.00000133      0.00000042      0.0
<Jul18-2023> <11:50:41>  SCF converged
<Jul18-2023> <11:50:44>      6      0.00000009      0.00000004      0.0
<Jul18-2023> <11:50:44>  >>>> TOTEN
<Jul18-2023> <11:50:46>  >>>> POPAN
<Jul18-2023> <11:50:46>  >>>> DEBYE
<Jul18-2023> <11:50:46>   Subsystem A total energy            0.00000000 a.u.
<Jul18-2023> <11:50:46>   Subsystem B total energy            0.00000000 a.u.
<Jul18-2023> <11:50:46>   FDE interaction energy             -0.00979120 a.u.
<Jul18-2023> <11:50:46>   Total subsystem DFT energy         -0.00979120 a.u.
<Jul18-2023> <11:50:46>  >>>> AMETS
<Jul18-2023> <11:50:46>  >>>> POPUL
<Jul18-2023> <11:50:46>  FDE calculation: Relaxing FDE fragment frag2 in iteration No.  3
<Jul18-2023> <11:50:46>  >>>> FRAGM
<Jul18-2023> <11:50:47>  >>>> CORORT
<Jul18-2023> <11:50:47>  >>>> FITINT
<Jul18-2023> <11:50:47>  >>>> CLSMAT
<Jul18-2023> <11:50:47>  >>>> ORTHON
<Jul18-2023> <11:50:47>  >>>> GENPT
<Jul18-2023> <11:50:47>  Acc.Num.Int.=   8.000
<Jul18-2023> <11:50:47>  Block Length= 128
<Jul18-2023> <11:50:47>  >>>> PTBAS
<Jul18-2023> <11:50:47>  >>>> CYCLE
<Jul18-2023> <11:50:47>  Orbital Data from active fragment used
<Jul18-2023> <11:50:49>              |Error|         MaxErr       Wt(A-DIIS)
<Jul18-2023> <11:50:49>      1      0.00001347      0.00000605
<Jul18-2023> <11:50:51>      2      0.00000849      0.00000306    100.0
<Jul18-2023> <11:50:52>      3      0.00001363      0.00000505    100.0
<Jul18-2023> <11:50:53>      4      0.00000131      0.00000037      0.0
<Jul18-2023> <11:50:53>  SCF converged
<Jul18-2023> <11:50:56>      5      0.00000010      0.00000003      0.0
<Jul18-2023> <11:50:57>  >>>> TOTEN
<Jul18-2023> <11:50:59>  >>>> POPAN
<Jul18-2023> <11:50:59>  >>>> DEBYE
<Jul18-2023> <11:50:59>   Subsystem A total energy            0.00000000 a.u.
<Jul18-2023> <11:50:59>   Subsystem B total energy            0.00000000 a.u.
<Jul18-2023> <11:50:59>   FDE interaction energy             -0.00979163 a.u.
<Jul18-2023> <11:50:59>   Total subsystem DFT energy         -0.00979163 a.u.
<Jul18-2023> <11:50:59>  >>>> AMETS
<Jul18-2023> <11:50:59>  >>>> POPUL
<Jul18-2023> <11:50:59>  FDE calculation: FDE iteration No.  4 on main fragment
<Jul18-2023> <11:50:59>  >>>> FRAGM
<Jul18-2023> <11:50:59>  >>>> CORORT
<Jul18-2023> <11:50:59>  >>>> FITINT
<Jul18-2023> <11:50:59>  >>>> CLSMAT
<Jul18-2023> <11:50:59>  >>>> ORTHON
<Jul18-2023> <11:50:59>  >>>> GENPT
<Jul18-2023> <11:50:59>  Acc.Num.Int.=   8.000
<Jul18-2023> <11:50:59>  Block Length= 128
<Jul18-2023> <11:51:00>  >>>> PTBAS
<Jul18-2023> <11:51:00>  >>>> CYCLE
<Jul18-2023> <11:51:00>  Orbital Data from active fragment used
<Jul18-2023> <11:51:02>              |Error|         MaxErr       Wt(A-DIIS)
<Jul18-2023> <11:51:02>      1      0.00000156      0.00000068
<Jul18-2023> <11:51:03>      2      0.00000121      0.00000040    100.0
<Jul18-2023> <11:51:03>  SCF converged
<Jul18-2023> <11:51:06>      3      0.00000179      0.00000063    100.0
<Jul18-2023> <11:51:06>  >>>> TOTEN
<Jul18-2023> <11:51:08>  >>>> POPAN
<Jul18-2023> <11:51:08>  >>>> DEBYE
<Jul18-2023> <11:51:08>   Subsystem A total energy            0.00000000 a.u.
<Jul18-2023> <11:51:08>   Subsystem B total energy            0.00000000 a.u.
<Jul18-2023> <11:51:08>   FDE interaction energy             -0.00979167 a.u.
<Jul18-2023> <11:51:08>   Total subsystem DFT energy         -0.00979167 a.u.
<Jul18-2023> <11:51:08>  >>>> AMETS
<Jul18-2023> <11:51:08>  >>>> POPUL
<Jul18-2023> <11:51:08>  FDE calculation: Relaxing FDE fragment frag2 in iteration No.  4
<Jul18-2023> <11:51:08>  >>>> FRAGM
<Jul18-2023> <11:51:08>  >>>> CORORT
<Jul18-2023> <11:51:08>  >>>> FITINT
<Jul18-2023> <11:51:08>  >>>> CLSMAT
<Jul18-2023> <11:51:08>  >>>> ORTHON
<Jul18-2023> <11:51:08>  >>>> GENPT
<Jul18-2023> <11:51:08>  Acc.Num.Int.=   8.000
<Jul18-2023> <11:51:09>  Block Length= 128
<Jul18-2023> <11:51:09>  >>>> PTBAS
<Jul18-2023> <11:51:09>  >>>> CYCLE
<Jul18-2023> <11:51:09>  Orbital Data from active fragment used
<Jul18-2023> <11:51:11>              |Error|         MaxErr       Wt(A-DIIS)
<Jul18-2023> <11:51:11>      1      0.00000022      0.00000010
<Jul18-2023> <11:51:12>      2      0.00000014      0.00000005    100.0
<Jul18-2023> <11:51:12>  SCF converged
<Jul18-2023> <11:51:15>      3      0.00000023      0.00000008    100.0
<Jul18-2023> <11:51:16>  >>>> TOTEN
<Jul18-2023> <11:51:18>  >>>> POPAN
<Jul18-2023> <11:51:18>  >>>> DEBYE
<Jul18-2023> <11:51:18>   Subsystem A total energy            0.00000000 a.u.
<Jul18-2023> <11:51:18>   Subsystem B total energy            0.00000000 a.u.
<Jul18-2023> <11:51:18>   FDE interaction energy             -0.00979169 a.u.
<Jul18-2023> <11:51:18>   Total subsystem DFT energy         -0.00979169 a.u.
<Jul18-2023> <11:51:18>  >>>> AMETS
<Jul18-2023> <11:51:18>  >>>> POPUL
<Jul18-2023> <11:51:18>  FDE converged - doing final cycle
<Jul18-2023> <11:51:18>  FDE calculation: FDE iteration No.  5 on main fragment
<Jul18-2023> <11:51:18>  >>>> FRAGM
<Jul18-2023> <11:51:18>  >>>> CORORT
<Jul18-2023> <11:51:18>  >>>> FITINT
<Jul18-2023> <11:51:18>  >>>> CLSMAT
<Jul18-2023> <11:51:18>  >>>> ORTHON
<Jul18-2023> <11:51:18>  >>>> GENPT
<Jul18-2023> <11:51:18>  Acc.Num.Int.=   8.000
<Jul18-2023> <11:51:19>  Block Length= 128
<Jul18-2023> <11:51:19>  >>>> PTBAS
<Jul18-2023> <11:51:19>  >>>> CYCLE
<Jul18-2023> <11:51:19>  Orbital Data from active fragment used
<Jul18-2023> <11:51:21>              |Error|         MaxErr       Wt(A-DIIS)
<Jul18-2023> <11:51:21>      1      0.00000025      0.00000009
<Jul18-2023> <11:51:22>      2      0.00000021      0.00000007    100.0
<Jul18-2023> <11:51:22>  SCF converged
<Jul18-2023> <11:51:25>      3      0.00000024      0.00000008    100.0
<Jul18-2023> <11:51:25>  >>>> TOTEN
<Jul18-2023> <11:51:27>  >>>> POPAN
<Jul18-2023> <11:51:27>  >>>> DEBYE
<Jul18-2023> <11:51:27>   Subsystem A total energy            0.00000000 a.u.
<Jul18-2023> <11:51:27>   Subsystem B total energy            0.00000000 a.u.
<Jul18-2023> <11:51:27>   FDE interaction energy             -0.00979170 a.u.
<Jul18-2023> <11:51:27>   Total subsystem DFT energy         -0.00979170 a.u.
<Jul18-2023> <11:51:27>  >>>> AMETS
<Jul18-2023> <11:51:27>  >>>> POPUL
<Jul18-2023> <11:51:27>  NORMAL TERMINATION
